4
Properties=species:S:1:pos:R:3:initial_magmoms:R:1:forces:R:3 energy=1.2128831450736173 dipole="-0.0 -0.0 -0.0" magmom=1 free_energy=1.2128831450736173 pbc="F F F"
C        2.53693226       0.15500772       0.00000000       1.00000000       0.00009839       0.00004930      -0.00000000
H        3.45167377       0.68313888       0.00000000       0.00000000       0.00792262       0.00481992      -0.00000000
H        1.62217458       0.68308556       0.00000000       0.00000000      -0.00818862       0.00431937      -0.00000000
H        2.53691939      -0.90123216       0.00000000       0.00000000       0.00016760      -0.00918855      -0.00000000
